# vtk DataFile Version 2.0
track0
ASCII
DATASET POLYDATA
POINTS 21697 float
0.000721947 0.00470324 0.299879
0.000721326 0.00464034 0.299922
0.000729285 0.00471 0.299715
0.000730333 0.00465549 0.299749
0.00073324 0.00452051 0.299894
0.000730728 0.00450909 0.299885
0.000749685 0.0044276 0.299973
0.000755618 0.004403 0.299986
0.000744647 0.00475413 0.299535
0.000746589 0.00470652 0.299559
0.000750099 0.00458642 0.299675
0.000748218 0.00458115 0.299661
0.000767363 0.0044952 0.299752
0.000773746 0.00447355 0.299766
0.000772061 0.0043961 0.299843
0.000769469 0.00428849 0.29996
0.000699324 0.00444385 0.29977
0.000706834 0.0044211 0.299793
0.00076295 0.00482369 0.299354
0.000764718 0.00478354 0.299367
0.000767569 0.00466678 0.299462
0.000765388 0.00466465 0.299446
0.000783944 0.00458346 0.299529
0.000790137 0.00456457 0.299538
0.000788224 0.00448271 0.299625
0.000785791 0.00437576 0.299739
0.000716333 0.00455908 0.299513
0.000723729 0.0045271 0.299548
0.000779888 0.00490962 0.29918
0.000780977 0.0048694 0.299189
0.000783331 0.00475805 0.299262
0.00078046 0.00474987 0.299252
0.00079829 0.00468148 0.299308
0.000804055 0.00465833 0.299322
0.000801489 0.00458205 0.299396
0.000798538 0.0044738 0.299517
0.000729465 0.00466274 0.29929
0.000736761 0.00463375 0.29932
0.000793617 0.00500459 0.299025
0.000794077 0.00495922 0.299035
0.000796041 0.00485746 0.299086
0.000792673 0.00484276 0.299082
0.000810006 0.00477659 0.299125
0.000815286 0.00474624 0.299142
0.000812286 0.00467771 0.299199
0.00080923 0.00457684 0.299299
0.000740628 0.00476264 0.299104
0.000747784 0.00473462 0.299126
0.000804881 0.00509793 0.298888
0.000804364 0.00505164 0.2989
0.000805723 0.00495196 0.29894
0.000801323 0.004929 0.298941
0.000817898 0.0048655 0.298973
0.000822465 0.00481998 0.298998
0.000819159 0.00475063 0.299046
0.000815894 0.00465517 0.299132
0.000747615 0.00483802 0.298964
0.000754691 0.00480913 0.298984
0.000812252 0.00516748 0.298773
0.000810963 0.00511414 0.298792
0.000811658 0.00501415 0.298831
0.000806479 0.00498291 0.298836
0.000822432 0.00491966 0.298864
0.000826407 0.00486931 0.298888
0.000822464 0.00479019 0.298939
0.000818806 0.00469467 0.299017
0.000750714 0.00487722 0.298864
0.000757822 0.00484853 0.298882
0.000816034 0.00521219 0.298685
0.000814499 0.00514739 0.298708
0.000815075 0.00504872 0.298747
0.000809532 0.00500762 0.298756
0.000825518 0.00495955 0.298774
0.000829306 0.00490446 0.2988
0.00082513 0.00481825 0.298851
0.000821202 0.00471213 0.298934
0.000752833 0.00488876 0.298792
0.000759734 0.00485904 0.29881
0.00081833 0.00523818 0.298612
0.00081513 0.00516293 0.298639
0.000814253 0.00505686 0.298682
0.000807633 0.00500252 0.298698
0.000822968 0.00496005 0.298713
0.000826174 0.00490105 0.298742
0.000821399 0.00481209 0.298797
0.000816989 0.00469994 0.298887
0.000748237 0.00486926 0.298746
0.000755095 0.00483831 0.298766
0.000814004 0.00522872 0.298557
0.000810042 0.00514743 0.29859
0.000808406 0.00503525 0.298632
0.000801139 0.00497599 0.298653
0.000815876 0.00492702 0.298674
0.000818665 0.0048646 0.298708
0.000813461 0.00476834 0.298776
0.000808906 0.00465359 0.298874
0.000739708 0.00482456 0.298721
0.000746548 0.0047933 0.298744
0.000805732 0.00518746 0.298519
0.000801015 0.00509515 0.298556
0.000798755 0.00497845 0.298603
0.000791257 0.00492301 0.298626
0.000805498 0.00485623 0.298664
0.000807925 0.00478745 0.298711
0.000802629 0.00469285 0.29879
0.000797896 0.00457671 0.298891
0.00072802 0.00474237 0.298736
0.000734692 0.00470894 0.298764
0.000793267 0.00510389 0.298501
0.000787869 0.00501317 0.298535
0.000784567 0.00488528 0.298602
0.000776616 0.00482855 0.298635
0.000790516 0.00474903 0.298699
0.000792767 0.00468564 0.29875
0.000787194 0.0045852 0.298835
0.000782333 0.00446105 0.298959
0.000711488 0.00461751 0.298795
0.000718178 0.00458083 0.298828
0.00077669 0.00499679 0.298494
0.000771051 0.00490591 0.29854
0.000767489 0.00476684 0.298643
0.000759013 0.00471211 0.298685
0.000772522 0.00462 0.298762
0.000774505 0.00456168 0.298813
0.00076862 0.00445743 0.298919
0.000763435 0.00431767 0.29907
0.000691557 0.0044599 0.298905
0.0006982 0.00442092 0.298948
0.000756465 0.00486655 0.298518
0.000750386 0.00477424 0.298589
0.000746235 0.00461229 0.29873
0.000737802 0.00456102 0.298772
0.000751307 0.00446023 0.298876
0.000753416 0.00441081 0.298928
0.00074761 0.00429351 0.299051
0.000742526 0.00413732 0.2992
0.000669898 0.00426721 0.299065
0.000676672 0.00422403 0.299107
0.000734266 0.00471409 0.298599
0.000728976 0.00462418 0.298672
0.000725584 0.00444386 0.298856
0.000717861 0.0044024 0.298898
0.00073199 0.00429197 0.299014
0.00073439 0.00423689 0.299063
0.000729076 0.00411346 0.29918
0.000723807 0.00394247 0.299337
0.00065084 0.00404835 0.299237
0.00065768 0.00401586 0.299272
0.000715114 0.00455984 0.298689
0.000710624 0.00446772 0.298782
0.000708296 0.00427723 0.29899
0.000701182 0.00423454 0.299024
0.000716296 0.00411676 0.299136
0.000719156 0.00405852 0.299192
0.000714666 0.00393135 0.299301
0.0007096 0.00374671 0.299438
0.000636661 0.0038295 0.299368
0.000643739 0.00380289 0.299388
0.000702099 0.00442684 0.298783
0.000699603 0.00433508 0.298887
0.000699195 0.00414582 0.299067
0.000693415 0.00410447 0.299101
0.000710001 0.00399386 0.299214
0.000713706 0.00393487 0.299253
0.000709847 0.0038121 0.299342
0.00070509 0.00360406 0.29947
0.000632174 0.00369375 0.299413
0.000639424 0.00366269 0.299429
0.000698094 0.00433891 0.298834
0.000696701 0.00424305 0.298921
0.000697621 0.00405987 0.299103
0.000692757 0.00401989 0.299141
0.000710251 0.00391249 0.299223
0.000714663 0.00385779 0.299259
0.000711646 0.00373867 0.29934
0.000707507 0.00351961 0.299456
0.000635067 0.00362962 0.299395
0.000642517 0.00359763 0.299411
0.000701156 0.00429085 0.298818
0.000701322 0.00420274 0.298897
0.000703608 0.00402672 0.299083
0.000700179 0.00400296 0.299101
0.000718955 0.00390297 0.299172
0.000724416 0.00386092 0.299198
0.000722334 0.00375122 0.299272
0.000718949 0.00355344 0.299383
0.00064732 0.0036873 0.299305
0.000654908 0.00366407 0.299317
0.000713208 0.00431433 0.298717
0.000714565 0.00424554 0.298778
0.000717862 0.00408654 0.298943
0.000715501 0.00407814 0.298941
0.000734672 0.00398471 0.299043
0.000740789 0.00395603 0.299058
0.000739086 0.00385848 0.299129
0.000736008 0.0036892 0.299249
0.000665521 0.00384636 0.299125
0.000673159 0.00382281 0.299141
0.000730784 0.00439656 0.298522
0.000733067 0.00434894 0.298575
0.000736938 0.00420109 0.29873
0.000735334 0.0042054 0.29871
0.000754735 0.00411105 0.298813
0.000761264 0.00409263 0.298826
0.000759148 0.00400226 0.298937
0.000756078 0.00385527 0.299052
0.000686104 0.00402935 0.298885
0.00069345 0.0040043 0.298917
0.000750704 0.00451108 0.298243
0.000751606 0.00447075 0.298283
0.000753879 0.00433506 0.298474
0.000751044 0.00433754 0.298454
0.000769141 0.00424839 0.29855
0.000774814 0.0042327 0.298558
0.000772204 0.0041363 0.298667
0.000768842 0.00400314 0.298839
0.000699414 0.00418676 0.298586
0.000706793 0.00415166 0.298628
0.000763831 0.00462402 0.297964
0.000764666 0.00458438 0.297997
0.000766894 0.00446269 0.298164
0.000763653 0.00445633 0.298156
0.000781439 0.00438356 0.298262
0.000786992 0.00436443 0.298279
0.000784433 0.00428034 0.298381
0.000781396 0.00414919 0.298538
0.000712349 0.00433843 0.298286
0.000719732 0.0043067 0.298326
0.00077687 0.00474582 0.297666
0.000777461 0.00470397 0.297698
0.000779659 0.00459492 0.297831
0.000775973 0.00457911 0.297833
0.000793436 0.00451204 0.297926
0.00079848 0.00447791 0.29797
0.000795617 0.00439765 0.298092
0.000792688 0.00428446 0.298248
0.000724031 0.00446539 0.297958
0.000731388 0.00443643 0.298005
0.000788588 0.00485182 0.297372
0.000788368 0.00479979 0.29742
0.000790107 0.00470156 0.297535
0.000785801 0.00467166 0.297553
0.00080267 0.00460861 0.297634
0.000807223 0.00455904 0.2977
0.000803948 0.00447766 0.297828
0.00080075 0.00436925 0.298
0.000732355 0.00454851 0.297679
0.00073953 0.00451734 0.297731
0.000796773 0.00491904 0.297093
0.000795393 0.00485695 0.297161
0.000796156 0.00475764 0.297287
0.000790563 0.0047141 0.297326
0.000806584 0.00466882 0.297374
0.000810385 0.00461618 0.297445
0.000806243 0.00452075 0.297602
0.000802331 0.00440117 0.297806
0.000733744 0.00456851 0.297487
0.000740892 0.00453707 0.297542
0.000799166 0.00495967 0.296824
0.000797043 0.00488313 0.296918
0.000797226 0.00478044 0.297057
0.000791331 0.00472319 0.297121
0.0008074 0.00468644 0.297158
0.000811191 0.00463035 0.297236
0.000807287 0.00453603 0.297405
0.000803516 0.00441315 0.297628
0.000734778 0.00456749 0.297311
0.000741956 0.00453672 0.297371
0.000800538 0.00497 0.296587
0.000798137 0.00488742 0.296688
0.000797955 0.00478015 0.296836
0.000791771 0.00471738 0.296911
0.000807579 0.00467789 0.296954
0.000811185 0.00461798 0.297049
0.000806928 0.00452213 0.297239
0.000802884 0.00439509 0.29748
0.000733873 0.00454956 0.297145
0.000740955 0.00451835 0.29721
0.000799095 0.00495375 0.29639
0.000795905 0.00486785 0.29649
0.00079504 0.00475513 0.296645
0.000788279 0.00468734 0.296726
0.000803634 0.00464001 0.296783
0.000806788 0.00457762 0.296901
0.000801787 0.00447268 0.297118
0.000797357 0.00433887 0.297376
0.000727747 0.00450293 0.297014
0.000734569 0.00446924 0.297083
0.000792256 0.00490327 0.296259
0.000787001 0.00480504 0.296373
0.000784187 0.00467475 0.296542
0.000775972 0.00461472 0.296612
0.00078987 0.00454221 0.296751
0.000791741 0.00447496 0.296875
0.00078624 0.00436957 0.297077
0.000781471 0.00423729 0.297331
0.000710954 0.0043989 0.296972
0.000717578 0.00436262 0.297043
0.000775054 0.00480675 0.296212
0.000768853 0.00471472 0.296304
0.000765287 0.00457331 0.296499
0.000756723 0.00452132 0.296567
0.000770378 0.00443701 0.296709
0.000772198 0.00438082 0.296797
0.000766508 0.00427366 0.29699
0.000761552 0.00413767 0.297281
0.000690209 0.00427952 0.296931
0.00069684 0.00424315 0.297008
0.000754322 0.00471372 0.296159
0.000747983 0.00462547 0.296232
0.000744068 0.00447522 0.29646
0.00073532 0.00442903 0.296506
0.000748799 0.0043359 0.296644
[...]
POINT_DATA 21697
 FIELD attributes 0
